9604
Atoms. Timestep: 0
2 15.4815 10.0601 21.9122
2 11.7393 10.8111 21.4503
2 27.946 15.8746 22.2016
2 11.9332 17.7501 13.7787
2 17.1303 23.8923 27.2406
2 12.013 21.9281 23.7326
2 19.8101 26.8427 15.3136
2 11.8566 20.1344 19.6619
2 11.5829 20.7705 24.5564
2 28.3027 21.9871 24.4193
2 27.3594 13.0129 8.34023
2 12.3247 10.1692 21.2029
2 27.0416 8.38596 25.2522
2 20.0041 8.35071 12.764
2 9.86571 22.7972 12.9417
2 10.7262 23.4812 20.1531
2 11.7516 7.85983 28.2141
2 14.8995 24.4445 14.4395
2 14.2878 21.9669 10.5628
2 9.89972 6.66058 10.7583
2 14.6956 23.7203 13.0721
2 11.4885 24.4014 22.3582
2 21.5998 17.2924 12.3832
2 12.396 8.78837 9.41334
2 16.8553 26.0779 9.18375
2 8.73937 20.705 9.6729
2 14.6714 7.62497 21.6274
2 18.254 5.88493 18.396
2 17.2622 8.65454 11.7791
2 13.1307 17.823 11.6639
2 15.1948 8.64942 26.5611
2 10.0527 23.3785 22.9563
2 22.6313 24.9725 22.4502
2 16.0743 23.2914 16.5229
2 22.4151 22.9442 23.2261
2 24.0217 14.4194 16.0133
2 22.0585 28.3674 10.9488
2 7.9455 26.4586 25.657
2 20.5153 26.0165 28.0969
2 11.7538 17.3319 17.1841
2 6.27321 22.4637 8.4135
2 13.056 19.4781 19.8672
2 22.0864 12.2278 18.1263
2 16.6661 22.8517 19.9103
2 9.23616 20.1202 23.3182
2 12.3607 9.60713 12.074
2 10.8999 15.0374 6.72533
2 11.3426 17.1671 11.8795
2 14.4802 27.7606 15.7527
2 13.8665 19.4401 21.5406
2 16.4217 8.39284 26.7146
2 17.7232 22.423 6.10509
2 13.6883 6.52734 27.1828
2 19.8902 24.7647 27.8847
2 8.36955 14.9663 12.8144
2 16.3651 27.6275 6.6028
2 20.9844 19.9364 19.0261
2 9.37262 21.9561 21.9836
2 19.7932 28.476 8.89949
2 19.1016 26.6595 9.9856
2 12.0437 25.364 22.129
2 16.3442 28.171 24.2864
2 16.3277 7.69801 25.0717
2 17.2064 20.9205 8.04066
2 21.1507 22.6498 15.8295
2 19.4516 24.6674 21.2664
2 17.2291 28.3875 12.06
2 18.9221 6.38293 17.1674
2 19.7259 11.5413 8.03883
2 18.1389 21.4134 17.8407
2 11.8391 24.0106 17.4347
2 9.65068 8.06036 16.2861
2 8.3449 21.924 24.2086
2 15.5659 8.70522 27.8204
2 16.4518 22.4568 12.9224
2 14.2687 8.47137 23.9449
2 23.3268 23.3184 20.146
2 8.35968 23.1517 16.6624
2 12.5715 26.773 26.4827
2 28.5254 23.3377 27.0502
2 19.9954 7.71612 18.8369
2 18.2167 17.01 21.8126
2 10.2445 8.99061 13.3005
2 20.3552 25.638 15.778
2 13.5046 24.1244 21.6162
2 16.4501 12.1005 6.9461
2 12.4362 27.8839 24.7004
2 7.96355 21.4719 28.469
2 15.5446 6.67734 19.1415
2 11.616 21.8466 27.0856
2 21.6231 28.1214 9.96506
2 17.2875 17.585 14.6056
2 12.0084 26.2855 14.6468
2 17.2729 8.65994 23.3778
2 16.6671 20.3943 18.9988
2 22.0374 28.5575 28.4854
2 9.28043 28.5279 12.8666
2 11.0734 25.7171 19.8295
2 13.3267 6.30855 28.2685
2 13.5394 27.3905 6.81513
2 7.67147 25.8693 26.6767
2 12.045 27.6896 8.67154
2 8.31695 25.0759 25.4499
2 13.8887 20.6322 27.1408
2 15.4299 23.7614 11.2001
2 16.1101 21.0886 19.4574
2 26.1445 25.3917 12.6862
2 18.8304 7.45157 13.1853
2 17.3599 26.3142 6.39859
2 14.8092 8.66084 8.64382
2 15.9499 11.9226 7.34888
2 7.50357 21.547 23.3538
2 25.3849 13.3784 16.8731
2 15.3991 6.87377 27.5222
2 17.9417 21.2006 23.012
2 15.5471 28.65 27.0659
2 11.2973 23.1473 26.6117
2 18.8037 23.3739 24.2294
2 14.0043 10.6798 21.423
2 20.813 23.4078 18.7676
2 18.998 17.9709 20.2239
2 20.5758 6.7396 18.5747
2 16.3203 10.4652 25.4101
2 20.8537 27.2445 20.5877
2 13.4139 9.79524 24.8881
2 19.7032 26.5584 11.2566
2 22.2035 25.787 23.5171
2 14.5167 8.15115 20.5944
2 16.0555 21.346 27.5373
2 15.8798 7.88849 15.7455
2 12.024 20.7708 26.3634
2 8.01823 27.126 26.5607
2 17.2568 8.42325 25.7707
2 11.4439 20.9364 8.72256
2 17.7011 26.252 18.0849
2 16.9082 8.07917 23.613
2 13.5446 7.33996 23.3074
2 14.6237 22.7087 18.2859
2 14.3912 22.1264 9.6746
2 14.3976 21.3854 16.1661
2 14.4019 9.7718 25.0752
2 6.67144 23.6901 21.3518
2 18.7339 8.58913 11.7903
2 9.54247 23.3995 16.4969
2 14.3689 21.1808 19.9027
2 15.0835 26.8679 17.243
2 19.2356 6.08102 12.9664
2 9.55266 22.9931 17.7253
2 14.7708 6.41676 20.5908
2 18.9332 6.33046 15.8277
2 10.0941 24.1665 12.3859
2 14.2295 12.1808 8.40614
2 12.7784 22.4818 8.25598
2 18.3028 18.8926 24.989
2 27.7301 23.1015 24.655
2 20.67 27.4686 28.4874
2 18.6883 19.2709 16.3655
2 11.6667 23.5886 19.6565
2 18.731 25.9283 8.04375
2 12.4728 16.601 7.67005
2 16.6913 24.1802 26.1046
2 10.5308 19.9399 16.573
2 10.3301 23.5738 10.0082
2 25.3018 10.1059 15.2604
2 11.6391 6.89794 27.9089
2 8.80395 23.8881 25.6516
2 14.872 25.8426 10.5888
2 14.9089 28.0923 6.68143
2 15.1382 7.98641 23.3031
2 13.7962 28.2368 26.9834
2 10.1597 24.0523 9.08259
2 10.2603 8.66674 9.65124
2 9.37957 7.48458 25.0782
2 14.4881 22.6779 22.746
2 13.7139 21.4872 14.8874
2 14.5273 25.4111 12.7941
2 7.52069 23.9944 19.3812
2 17.1657 23.4281 18.641
2 15.5684 24.0972 19.4099
2 18.6282 25.8983 10.3778
2 18.5536 6.87295 27.8419
2 25.4705 17.6963 14.8125
2 12.8327 21.736 11.9136
2 14.8568 20.904 17.2225
2 15.4814 11.6106 28.2026
2 11.9469 8.17274 8.52438
2 16.6649 27.1448 16.5353
2 15.5643 22.6477 21.067
2 16.0896 26.6975 20.6084
2 18.4826 25.8867 8.80374
2 17.2924 11.5242 16.7568
2 7.88859 13.9462 11.9311
2 28.277 15.2086 25.8426
2 18.694 17.7126 14.8533
2 25.9891 15.1241 19.7422
2 7.85988 28.1457 8.87836
2 6.21053 19.9893 5.92831
2 12.5808 26.956 20.9141
2 18.605 25.6229 13.6536
2 6.46315 25.5668 12.4617
2 12.9673 19.3215 13.734
2 11.9477 22.5259 8.91756
2 14.6218 10.5146 27.1146
2 17.7138 6.93322 26.7696
2 9.71191 27.4526 16.5729
2 17.4926 24.1434 7.56254
2 8.31083 27.351 6.68934
2 20.8341 25.8783 17.77
2 19.6181 22.8432 22.1123
2 10.71 19.7382 26.4015
2 19.7583 26.7987 6.24754
2 15.5675 7.08344 9.44993
2 11.6738 21.1435 6.75405
2 15.2797 10.3591 23.0183
2 9.90532 21.9701 26.8299
2 14.4283 6.37296 13.5241
2 22.6224 23.1725 21.4134
2 19.1657 28.5742 24.714
2 16.9287 24.496 22.1928
2 20.1751 8.50865 20.9006
2 13.39 7.30045 8.71854
2 10.9606 18.4539 20.5946
2 9.34131 6.10808 9.31937
2 19.6381 21.9607 28.414
2 20 9.05374 12.5012
2 18.2768 26.6998 21.8896
2 19.3545 28.3112 6.22098
2 20.1443 26.3497 19.7733
2 18.5594 8.33306 26.3465
2 18.006 28.4327 17.3428
2 9.45838 24.0184 26.624
2 17.6057 22.1858 15.0447
2 13.638 6.70381 17.3402
2 18.6905 5.99838 28.4501
2 27.8487 27.062 25.4592
2 8.74432 23.979 25.1171
2 12.0145 18.3553 5.96321
2 20.5253 7.47881 13.4919
2 18.9774 23.7683 6.2281
2 11.6717 26.5024 12.5797
2 9.83386 24.2489 6.39084
2 17.956 19.7532 16.5853
2 19.8461 22.8805 19.1682
2 11.7622 17.7281 12.542
2 13.8275 25.6847 20.0575
2 11.2418 23.4621 8.1252
2 19.9561 24.1788 23.8855
2 18.7008 18.3004 19.6828
2 18.7946 28.5028 25.2819
2 16.7979 21.1992 14.7103
2 18.9432 26.9811 25.8446
2 17.5517 7.47118 19.3581
2 16.4031 22.5799 18.704
2 19.7814 28.369 10.3553
2 11.9573 20.7723 9.33196
2 6.11955 12.1151 10.5196
2 17.5673 7.65138 20.2939
2 19.2473 6.06192 9.93364
2 14.659 26.6507 14.0118
2 10.9323 6.92682 21.7141
2 27.4438 23.1349 5.98359
2 16.8337 20.5036 24.1874
2 12.9415 6.3425 12.8276
2 15.7802 23.504 10.3472
2 10.2275 27.5352 20.399
2 27.0441 24.8516 23.5516
2 14.861 5.99209 7.60096
2 13.9813 20.8775 26.3821
2 18.8884 21.4465 18.8121
2 15.3359 10.8675 9.40615
2 8.03298 6.99047 9.65062
2 14.3971 7.80194 13.3671
2 8.03017 25.7335 15.8414
2 14.0326 19.3837 8.21908
2 13.3982 19.3836 16.3097
2 12.3568 26.8577 27.6181
2 17.6558 6.26869 15.7073
2 7.86866 22.5895 25.2887
2 8.89559 21.9404 8.71205
2 11.856 23.7642 9.86732
2 12.2043 24.1447 19.5653
2 16.5978 22.9272 8.32743
2 12.3133 6.67332 22.8003
2 19.8003 20.3245 17.3814
2 12.5001 21.1022 27.0359
2 26.9509 23.432 23.5905
2 14.4957 27.4465 20.0713
2 14.6884 20.2476 26.8784
2 16.508 20.3744 27.7845
2 12.9921 7.33537 13.9528
2 11.769 8.74937 14.4213
2 19.3998 21.8399 15.97
2 9.52836 6.34075 16.9276
2 8.96332 27.9498 23.5918
2 19.7122 22.6296 10.0748
2 23.4715 11.4275 9.41668
2 8.5961 24.1156 6.49992
2 17.3641 12.9488 10.3936
2 14.3847 18.9263 14.7784
2 16.6101 7.20308 6.23275
2 10.8709 23.5004 22.8198
2 15.7113 6.52923 18.0427
2 9.71656 6.34762 22.1493
2 9.02865 23.2391 22.6112
2 9.23594 28.331 25.3558
2 9.62813 27.1896 8.4935
2 11.9543 28.2466 14.9157
2 14.6877 21.5965 25.6786
2 11.4228 14.8708 6.80311
2 16.4738 28.1125 9.79305
2 9.63643 22.0382 23.4459
2 11.895 6.50279 19.9506
2 11.1575 10.7877 26.0172
2 12.0468 16.8043 6.02
2 17.6545 17.1028 28.4886
2 15.1115 6.47476 22.6424
2 11.0782 7.80919 19.3753
2 8.72548 6.69665 23.8405
2 12.6147 20.8918 9.94674
2 15.8639 28.0606 6.43523
2 8.35924 6.34321 19.6723
2 15.1672 22.4479 27.889
2 14.2319 28.4767 7.23131
2 28.3139 18.0555 23.8926
2 18.2359 9.68565 16.5317
2 26.7376 23.9852 26.2388
2 11.8049 7.23648 24.8989
2 22.3417 23.4537 16.9887
2 11.0132 25.8323 15.0262
2 20.9851 24.0768 19.9668
2 28.5947 13.0335 7.12164
2 10.965 24.3637 7.59805
2 15.5249 24.2444 21.4855
2 18.3577 22.1979 24.3282
2 7.80595 25.7736 21.2412
2 15.9352 6.67407 14.5393
2 9.38682 7.06018 18.8448
2 15.7025 20.6022 20.918
2 18.4752 10.6206 10.3878
2 25.3294 8.83311 9.33942
2 12.813 26.6073 16.2733
2 14.724 8.94003 17.8972
2 10.904 22.8323 14.3128
2 8.02172 21.8841 19.3209
2 9.08047 22.0879 8.00199
2 12.5299 7.05143 26.5343
2 15.8942 28.4257 21.4414
2 13.9125 19.0968 26.2052
2 12.7878 9.32324 8.01534
2 10.5156 25.7718 11.9435
2 7.63409 28.6017 5.92201
2 7.97412 6.145 18.5239
2 20.5243 19.8858 17.8475
2 5.93912 15.5599 25.447
2 11.7515 16.9755 16.3402
2 19.2256 18.2829 15.8386
2 10.3778 25.2988 24.5809
2 20.2957 23.9917 8.3711
2 17.6605 9.81804 13.3
2 20.2918 8.97251 26.7234
2 14.4743 10.3154 22.8219
2 9.33063 24.0332 27.6196
2 9.08501 6.91141 11.6948
2 16.1782 21.7565 24.1058
2 17.8905 18.4772 25.0931
2 19.7438 18.7918 23.8377
2 19.1809 23.9885 23.7057
2 14.5735 26.6556 9.18315
2 28.5383 9.7468 26.3899
2 14.8497 11.3037 9.95167
2 9.952 8.29184 20.5297
2 21.7885 24.6432 18.8949
2 11.7666 26.2835 27.5658
2 10.9749 25.8334 6.73314
2 12.3608 26.086 8.17378
2 16.3416 6.71944 23.7186
2 21.017 7.43827 18.6226
2 15.7798 8.26366 8.13856
2 17.0982 6.19807 20.738
2 14.1599 24.9826 14.5048
2 14.584 21.0212 21.6126
2 15.9334 8.80816 12.5005
2 14.2145 26.9586 27.3885
2 14.8011 22.0948 21.3635
2 18.1578 27.8823 12.1278
2 14.9106 11.027 28.5086
2 17.428 26.8097 13.7199
2 18.8972 6.87921 24.8315
2 15.0142 24.4375 6.60313
2 9.70022 25.2645 23.4731
2 12.7897 18.9516 23.9839
2 19.5228 23.3972 19.7422
2 7.61482 28.6007 7.01475
2 27.6482 12.6012 9.70787
2 26.9729 24.748 17.6599
2 12.0472 18.6367 12.6432
2 15.8396 10.0074 8.20337
2 18.1115 19.4932 18.1589
2 15.4616 8.80053 15.9838
2 12.6679 8.24408 6.81121
2 22.4843 23.4202 24.0801
2 8.30005 27.3402 19.6315
2 24.4272 9.13234 16.2463
2 14.1812 7.95786 22.8514
2 15.2371 28.2736 11.1063
2 17.1525 24.3425 16.5928
2 17.8654 8.27101 14.7811
2 14.237 26.6028 12.1583
2 17.9055 26.5371 20.373
2 16.7068 6.30219 7.50768
2 9.20278 6.26765 11.1449
2 11.1731 9.38084 10.3342
2 12.703 21.1431 15.1272
2 19.4395 21.4558 23.6845
2 11.9029 6.79743 17.2084
2 27.9884 6.42451 6.48952
2 15.982 23.4622 17.6624
2 17.6344 18.2879 11.303
2 12.2034 20.107 8.58149
2 14.936 11.4532 7.23244
2 11.7885 20.9734 12.3765
2 17.2231 9.60476 26.7863
2 8.84702 24.4866 28.156
2 18.9275 22.9488 28.2375
2 22.1542 25.6428 21.9215
2 20.2186 9.97959 16.5626
2 10.7064 24.6859 23.5529
2 15.7879 23.3438 8.61836
2 9.57186 26.4722 15.5209
2 16.799 12.7075 8.4294
2 15.8842 26.8455 12.0223
2 19.0391 23.7177 20.9814
2 11.6292 5.94179 22.9712
2 13.0516 24.4935 26.0952
2 8.04143 25.9715 19.5019
2 15.5358 7.95498 20.3542
2 7.37914 19.733 28.3885
2 7.07911 24.4448 23.6361
2 11.293 25.3836 7.6698
2 19.7716 11.1641 17.0427
2 12.5563 20.1519 23.0781
2 13.5428 20.2289 9.1185
2 17.0906 23.3177 19.9788
2 16.5358 8.75304 25.1885
2 10.3422 26.4127 8.93062
2 15.6783 8.03881 25.8288
2 12.1778 21.057 19.1774
2 12.564 17.3731 18.2378
2 13.2388 27.0193 19.975
2 13.2762 28.4663 19.2735
2 13.809 27.2033 15.3289
2 14.7341 23.9236 8.04125
2 15.4793 19.1546 18.9419
2 13.8117 24.3339 24.7875
2 18.6704 20.7177 25.713
2 13.3716 19.5093 11.4761
2 16.3598 9.82093 23.9121
2 11.9218 24.4685 10.5305
2 12.2072 20.1483 24.8769
2 18.4095 24.1769 22.0238
2 19.8988 24.8006 24.071
2 14.1375 21.8892 8.5278
2 10.2224 24.4693 8.16811
2 21.7768 13.9682 9.04334
2 13.8504 27.7094 19.21
2 9.50779 17.7434 24.1313
2 11.8436 26.1742 9.72013
2 13.429 27.8936 15.662
2 20.7858 26.6028 14.9512
2 17.1948 22.1752 20.9419
2 27.46 21.8255 23.9761
2 17.6261 25.9407 17.3435
2 6.42965 20.7175 28.376
2 15.3034 21.5961 23.8078
2 13.9683 10.5214 22.7369
2 17.3729 19.4003 25.0787
2 19.8819 22.5962 20.5462
2 12.0773 9.42476 26.5374
2 12.0823 21.6932 25.7875
2 12.6199 21.8803 28.1314
2 9.26791 18.2079 23.8883
2 16.8793 9.59435 15.8469
2 12.9322 23.0415 13.5357
2 14.5139 27.0547 23.0465
2 10.1493 23.3342 26.6942
2 19.8425 22.8149 23.0795
2 16.8925 24.0139 7.87467
2 9.02406 7.10114 21.3265
2 10.1713 26.0759 14.3233
2 12.2349 27.6882 6.58469
2 27.3847 8.93598 27.6474
2 14.0583 26.524 6.51562
2 8.31651 15.115 28.4517
2 16.5158 7.12604 18.6828
2 28.2027 11.5814 10.8832
2 10.5228 6.39481 8.41484
2 18.2418 25.4659 12.5233
2 12.3271 24.1339 14.3706
2 14.0897 17.7567 26.4034
2 19.4774 13.0152 7.82291
2 16.9362 21.2061 6.62893
2 10.6282 24.306 17.7049
2 14.4107 8.81662 17.4081
2 14.002 26.6096 26.757
2 8.83143 25.7254 28.2437
2 14.2645 18.7663 11.7904
2 21.3008 24.5388 16.1692
2 18.4608 14.1203 8.33958
2 16.0912 21.5644 14.7184
2 11.4333 6.58443 15.5365
2 9.55468 23.1179 6.40596
2 20.4385 27.6998 17.3039
2 9.90519 6.60146 14.8052
2 11.8237 21.0193 6.01991
2 15.8166 5.87872 5.88318
2 13.1342 18.2244 6.2941
2 7.68366 25.1723 21.8973
2 12.5846 28.4565 14.743
2 6.75214 14.8286 7.32987
2 14.1012 18.0259 20.2704
2 19.8949 27.6223 19.2974
2 16.2135 25.428 14.9658
2 12.2553 26.6268 13.4829
2 20.5414 7.30671 28.2276
2 8.8633 13.0291 12.2304
2 27.431 24.0793 26.0214
2 12.8598 24.7364 12.7232
2 11.1865 25.4815 18.1514
2 12.6793 6.07389 25.2535
2 18.1225 11.3867 27.1424
2 16.1954 23.7841 10.5318
2 9.7197 27.4978 9.6055
2 15.5964 6.98572 21.2495
2 14.3647 22.7948 8.361
2 14.251 9.66158 21.9745
2 27.7817 16.869 22.302
2 14.8611 7.12343 17.9556
2 20.1139 26.7091 28.2462
2 16.5403 25.1991 24.4976
2 13.9798 18.7708 20.9193
2 16.71 6.99285 19.811
2 13.0507 21.0722 12.3812
2 13.3813 20.2838 23.9881
2 14.2948 23.8263 25.5091
2 16.0044 24.1422 18.3891
2 7.58973 28.5031 11.3643
2 16.9983 8.07307 21.7428
2 14.8036 20.3912 17.5716
2 17.1812 27.9059 8.53716
2 15.7859 26.4806 15.4612
2 19.1047 23.5329 9.92071
2 11.8206 8.30634 13.1776
2 27.9633 24.7423 23.4216
2 11.612 20.9425 14.9679
2 19.7792 19.5995 22.3228
2 16.9811 21.3494 12.0901
2 11.1091 18.2411 14.3509
2 13.3367 8.89728 21.7682
2 25.8094 11.4132 17.8945
2 21.2799 25.5109 26.5806
2 18.5478 22.6885 19.6275
2 27.3974 25.3412 20.0598
2 11.2035 19.2462 23.2968
2 14.9224 22.5252 26.3905
2 18.3811 25.0847 27.3055
2 18.1386 9.61793 13.6937
2 19.2774 19.4285 21.6619
2 20.4783 27.091 26.8752
2 28.4275 12.3712 7.82836
2 21.173 19.4607 24.1396
2 18.2652 23.2591 7.35432
2 13.5673 21.9736 10.9125
2 11.6966 22.2799 6.80179
2 14.8798 20.7408 26.0882
2 17.1545 27.6808 14.1948
2 15.6622 23.9106 8.82867
2 17.8239 7.63908 24.0941
2 6.60744 28.0253 10.0566
2 12.874 24.0504 25.4308
2 28.5696 7.13819 27.8967
2 16.2906 26.2493 26.5277
2 11.8357 5.96517 17.5977
2 17.41 12.6776 7.45707
2 12.3836 24.088 13.7083
2 10.563 25.138 14.0089
2 20.6324 23.495 22.8225
2 7.49467 25.6654 16.7481
2 20.6298 27.281 10.0468
2 17.6587 21.2056 24.2974
2 9.38307 8.16671 13.6701
2 12.053 6.76113 25.4957
2 15.4641 9.12118 14.8932
2 8.94114 20.4291 18.067
2 25.6381 27.6366 9.34819
2 21.7024 27.9735 23.7351
2 24.679 10.2224 11.1624
2 9.79815 7.39878 6.034
2 12.9891 21.402 20.6362
2 17.42 18.6361 9.23217
2 21.2778 9.8709 17.0192
2 11.8884 20.5732 26.9114
2 6.97344 19.5881 23.2679
2 14.5377 21.8077 16.9268
2 15.8022 26.7047 9.27464
2 18.8724 11.745 23.2878
2 18.296 23.0097 22.4655
2 27.538 11.0241 22.9418
2 16.6164 7.47174 23.658
2 8.13675 26.4419 27.8433
2 9.75372 6.66176 27.6398
2 15.5025 22.5519 18.8955
2 17.4346 9.05938 12.7261
2 13.536 8.33434 24.4105
2 12.0883 8.66409 25.5847
2 18.4278 22.0526 10.8723
2 8.92393 6.42329 27.8776
2 8.30371 22.4618 21.2354
2 12.9502 8.50569 24.0698
2 13.4176 6.14552 22.2617
2 20.2153 9.10872 14.8651
2 11.9333 22.6092 17.9981
2 16.8721 28.2416 18.7402
2 10.8134 21.3905 9.7152
2 25.3465 12.5184 10.6722
2 8.69176 28.6118 16.8429
2 6.94588 22.6614 19.4976
2 16.2068 20.8944 13.1025
2 11.6503 19.2148 25.0509
2 8.73006 6.03245 14.8165
2 19.518 28.5216 8.18408
2 10.5211 27.4724 7.98802
2 16.7746 21.2846 17.2346
2 8.80361 28.1206 24.6525
2 13.8528 23.1563 26.9026
2 16.5336 25.4288 11.8567
2 15.5373 27.147 19.534
2 10.402 22.9337 10.8715
2 14.2507 28.5665 28.6216
2 16.1595 6.38249 13.2183
2 15.7372 26.6785 14.2549
2 6.20707 15.615 6.0327
2 10.349 25.9992 17.6803
2 20.5866 7.15258 12.5012
2 12.4525 16.7544 11.8372
2 21.21 21.6211 21.9666
2 15.7741 9.41624 21.2861
2 10.3059 16.9043 6.66051
2 26.3931 14.2578 16.092
2 20.369 22.9827 22.0031
2 16.5968 27.8903 19.5968
2 18.2551 12.643 6.42276
2 17.5745 25.4298 26.0184
2 10.944 7.96034 9.52499
2 8.97063 25.1577 13.2395
2 9.73897 27.9973 27.2155
2 14.6748 21.4435 26.9574
2 10.4658 18.7275 15.118
2 27.4105 22.0502 6.21399
2 13.7177 22.9322 21.203
2 18.7752 24.2395 27.0958
2 16.5294 9.1598 26.2041
2 17.9875 28.0519 13.0089
2 23.2702 23.1665 20.9375
2 22.3294 22.7599 18.8221
2 17.4613 11.7727 7.99798
2 11.6996 24.4953 12.4122
2 18.0986 12.3024 9.60763
2 9.25703 22.0967 6.38481
2 15.1908 23.568 20.568
2 19.1449 23.426 18.3132
2 8.83494 26.277 25.7586
2 12.8213 25.8075 27.5594
2 16.7434 24.7823 26.635
2 12.2382 28.3339 11.4398
2 21.6726 23.5063 23.4365
2 10.7343 25.4658 16.8631
2 10.3183 8.44025 17.5237
2 18.2185 24.727 20.6714
2 13.8634 20.9765 25.1179
2 15.9459 19.6406 12.9578
2 14.7021 24.1686 13.6048
2 14.4241 23.2947 16.99
2 11.2244 22.2495 24.1877
2 17.8547 21.3367 8.03984
2 17.9094 19.1297 21.6151
2 14.7313 7.98503 16.9545
2 16.9219 23.4498 25.9247
2 13.5921 6.48266 6.12202
2 13.8619 17.999 25.5868
2 18.3242 8.23014 13.0601
2 13.5462 21.7036 13.6159
2 10.6837 28.1439 12.3805
2 15.6337 17.4319 14.926
2 13.7595 27.4253 14.425
2 11.6298 21.9211 28.3645
2 15.026 28.2667 13.641
2 14.8235 22.9437 7.30081
2 12.9715 24.1465 16.6263
2 11.2943 6.3054 22.157
2 13.5053 17.0268 26.7428
2 17.5403 22.3902 23.8209
2 8.15452 23.8302 23.4943
2 16.0664 18.341 17.8613
2 12.5095 6.64256 9.30609
2 21.5422 26.8132 27.8276
2 11.5709 25.0356 11.7947
2 21.0692 11.561 23.2212
2 12.8312 28.2128 15.5745
2 6.60348 28.5996 27.7652
2 16.869 11.1381 24.4993
2 10.8574 23.9139 11.2324
2 9.49371 21.2466 22.1506
2 7.40014 9.55078 19.4151
2 24.4646 17.2973 15.2121
2 21.0474 13.1076 9.999
2 15.5825 23.4532 18.8545
2 22.6313 20.9326 23.5041
2 9.48398 7.17799 10.5797
2 12.5208 23.9706 10.4548
2 12.9434 6.0186 13.8038
2 14.9086 25.3884 22.0749
2 25.6032 13.2839 10.2253
2 18.57 19.4921 13.2163
2 18.4403 23.4874 8.46457
2 21.0213 23.0571 24.0125
2 19.0963 18.4823 17.3417
2 17.4931 27.7401 20.4269
2 10.0432 28.6303 23.7876
2 12.2938 19.6362 27.8046
2 8.9608 22.9047 16.4854
2 17.3178 21.7625 8.90255
2 18.6995 24.7533 24.8587
2 21.115 24.7957 25.1874
2 15.9396 9.69225 22.3832
2 16.3558 22.5874 6.73118
2 18.6073 22.5855 11.7246
2 16.8824 17.5841 12.9748
2 22.2268 11.7675 10.1188
2 13.6299 20.666 22.1157
2 17.3564 7.29606 25.8887
2 11.074 24.9073 27.5793
2 24.4627 18.3133 18.1275
2 20.3344 10.1351 18.75
2 15.7454 22.4026 19.7204
2 14.7103 8.08975 17.574
2 7.38074 21.6212 25.7681
2 13.774 19.6687 19.9532
2 9.14856 22.0336 18.5817
2 10.7558 23.5091 17.5261
2 16.5366 18.983 14.3978
2 22.893 11.7106 9.3441
2 11.3122 6.46659 8.87449
2 14.673 21.9217 11.8024
2 17.4163 7.60371 18.3241
2 10.7246 18.192 13.0916
2 9.1003 7.88592 19.7274
2 9.93274 7.00216 25.557
2 14.7526 6.11078 9.93046
2 16.3206 26.569 14.8784
2 11.1206 8.40718 22.4609
2 17.7087 5.96911 26.7219
2 16.5764 23.5589 14.8727
2 10.85 9.88395 16.1584
2 20.327 27.4145 8.82247
2 17.2686 8.37809 16.0324
2 18.3434 7.46977 23.3599
2 13.7134 25.9228 18.2553
2 9.8883 24.3026 28.2977
2 12.0305 19.1547 27.4857
2 21.3802 6.78259 19.2866
2 9.9818 24.2464 24.9412
2 10.2762 24.9714 18.1741
2 9.64683 27.6 12.2253
2 13.9244 26.7075 23.2312
2 13.3785 28.3125 14.8669
2 18.1657 7.60481 22.161
2 9.50552 6.61387 9.88334
2 17.9605 24.118 12.9767
2 11.9528 28.1206 9.89202
2 13.2675 17.8281 26.3252
2 9.47355 26.0966 24.9745
2 19.3949 11.6942 15.3859
2 11.9091 21.7347 21.8706
2 7.6866 26.2245 8.44211
2 10.6531 6.02924 16.0792
2 14.9732 24.7907 22.9816
2 12.7319 21.4389 9.50131
2 17.5389 10.6664 22.9931
2 15.1902 25.2748 15.5493
2 24.867 12.6323 16.9496
2 9.65471 22.041 20.2896
2 12.5109 8.50049 6.01007
2 14.9863 27.3249 13.8876
2 16.456 18.9352 12.1961
2 20.287 26.0144 12.7454
2 19.8586 18.2616 23.0115
2 13.5374 24.6698 20.7494
2 17.9756 9.28775 27.1135
2 11.4685 24.606 18.5267
2 13.7668 26.8197 11.0634
2 16.322 5.91692 17.9179
2 14.1614 20.8181 18.4975
2 23.5208 17.6484 14.7929
2 7.22076 28.2356 8.11952
2 11.2829 19.4554 22.1957
2 25.5122 27.2036 10.0915
2 21.2387 27.8748 25.383
2 20.9058 28.6201 20.0619
2 18.6421 23.0851 12.8276
2 10.6062 20.4257 21.0226
2 10.6582 6.92742 19.409
2 18.1301 26.6814 18.7289
2 10.7854 10.3058 24.8346
2 10.58 19.0875 21.6032
2 10.9217 18.8813 24.006
2 11.7522 18.1076 23.4247
2 9.2102 27.7412 28.2725
2 11.0588 26.8991 27.5039
2 12.6249 25.6189 13.4254
2 19.3622 27.7 24.6257
2 8.15219 23.0808 19.1134
2 16.3646 8.09389 7.09732
2 8.32286 23.7238 21.6301
2 12.4435 9.68708 10.7819
2 9.92506 23.9839 20.9064
2 14.2097 17.5328 19.5117
2 10.3712 17.3416 15.613
2 18.4042 26.2645 13.9588
2 18.6947 22.2928 8.22317
2 15.7203 28.1853 18.3477
2 12.8507 17.3804 17.34
2 8.6377 25.9201 18.5367
2 15.9944 27.1393 12.55
2 19.1295 18.1235 18.8273
2 17.8775 28.3042 7.01165
2 15.1198 21.4912 23.2538
2 25.874 12.5063 11.1323
2 11.7008 21.2342 23.7082
2 7.02268 26.4667 26.0966
2 7.44346 14.1528 11.1445
2 18.1189 7.91104 22.9057
2 14.2573 17.918 20.9352
2 10.213 6.83229 28.2682
2 12.374 7.43133 9.13164
2 13.9578 20.0694 14.0579
2 13.1038 19.5212 18.208
2 20.8245 19.8585 19.9171
2 11.5893 23.3215 6.76135
2 10.5371 26.0445 20.8113
2 20.5731 27.5898 14.6743
2 18.2187 23.4917 10.4732
2 16.8756 10.6612 9.55325
2 19.2256 18.3028 21.496
2 13.4011 16.8155 28.5185
2 17.1165 20.3815 18.4873
2 8.18719 25.6006 15.2331
2 12.8738 26.3466 25.6767
2 20.1084 6.64285 28.234
2 15.8021 22.3186 7.11532
2 19.8432 6.92408 17.4778
2 15.8496 11.2591 7.81579
2 18.7158 28.1412 16.815
2 9.77783 26.3813 22.0055
2 11.5923 6.00491 25.9656
2 15.359 26.1928 11.7492
2 22.1068 18.3584 22.3859
2 17.8117 11.386 14.9569
2 17.4456 25.5219 18.9716
2 16.2964 25.3919 23.6222
2 9.0104 23.8359 13.0343
2 10.8703 25.8639 26.708
2 21.5764 22.3994 17.1887
2 17.8347 24.3476 27.1497
2 9.65811 7.8501 25.6077
2 10.3945 22.2261 11.5519
2 8.99634 25.7458 17.2573
2 10.1818 28.3775 11.1591
2 14.5858 25.8958 17.4127
2 17.4672 26.8397 16.4625
2 26.5316 12.8882 9.07531
2 17.1957 10.0097 14.4411
2 9.40129 7.45793 15.7772
2 9.4501 25.2361 9.37084
2 28.1841 22.5834 21.3585
2 10.7141 8.14099 6.14057
2 18.0923 19.9632 15.862
2 14.9125 23.8887 26.7075
2 16.5474 10.3292 14.077
2 15.9007 24.8767 26.9746
2 10.23 20.5677 21.5451
2 11.2831 6.83428 20.7973
2 9.67849 26.378 18.4726
2 19.6705 24.4469 8.16015
2 16.1153 27.5778 27.2845
2 15.7428 26.3575 20.1748
2 28.2252 13.7853 7.41831
2 9.42287 22.6771 26.4153
2 23.5342 9.99454 10.6801
2 8.756 23.7266 12.3838
2 17.0725 11.9576 27.497
2 7.09064 23.7257 16.8423
2 11.9675 19.3746 23.5817
2 8.05991 23.7755 16.5634
2 9.02891 21.0111 16.9817
2 14.127 18.2864 23.7838
2 8.39221 6.35677 20.8339
2 13.1641 17.1096 6.43864
2 14.6744 19.6034 11.9759
2 14.579 23.1019 27.0602
2 14.1667 28.131 22.2049
2 9.29701 24.4499 20.3587
2 17.3276 20.7188 10.0132
2 14.9019 20.0035 18.5072
2 9.3811 7.44867 9.00853
2 11.5889 6.26105 10.3043
2 11.6534 5.95539 13.6134
2 16.7983 24.7532 5.9108
2 15.0102 22.8083 16.5319
2 14.5307 17.1772 10.0103
2 12.1904 6.1257 6.62453
2 11.6847 8.45863 17.2407
2 14.1677 8.25747 21.9317
2 19.0242 20.0078 13.9102
2 12.5047 20.6071 16.8256
2 16.8987 23.4986 15.906
2 9.15375 8.07132 9.47101
2 11.0067 21.4892 21.1004
2 17.8646 27.8437 19.7546
2 13.537 23.1006 6.45135
2 7.98698 25.0279 24.113
2 12.5679 19.4577 14.8062
2 9.25451 6.35584 21.2491
2 14.8899 10.5823 7.68057
2 13.0004 7.50682 23.039
2 15.7397 9.2897 26.4782
2 13.0338 20.848 6.22785
2 28.6056 23.3966 24.2172
2 21.1818 27.2338 19.4173
2 15.7418 7.73726 17.1793
2 13.718 26.2339 17.2839
2 10.536 19.5144 20.3281
2 17.0172 21.992 14.7385
2 20.0171 6.52535 27.0744
2 8.17977 19.7511 24.2788
2 15.3716 9.92482 9.76716
2 18.8438 22.7545 20.3852
2 13.7725 6.60062 12.1877
2 18.6121 19.4971 11.9979
2 14.3968 23.9229 24.0291
2 18.9396 26.5448 10.8599
2 14.5186 8.51025 11.064
2 13.8516 25.2759 23.2746
2 12.3471 5.87773 12.4466
2 9.62841 7.75962 6.51518
2 28.2026 13.1731 11.7736
2 19.3596 20.9497 21.5709
2 11.0889 18.3218 8.79115
2 13.4643 17.4208 17.812
2 20.2281 23.302 16.0615
2 20.9844 22.0228 16.7911
2 11.0432 26.7121 15.3483
2 17.7332 12.6308 11.5788
2 13.1759 22.8848 9.73951
2 16.2304 21.4733 6.58684
2 19.6587 28.2823 18.279
2 8.59952 7.52259 11.7158
2 18.2568 24.3846 23.8626
2 24.9387 10.6122 18.5405
2 26.8629 13.1863 22.6389
2 17.6562 9.25772 23.6025
2 15.3614 25.4177 27.2898
2 12.6012 28.5371 20.7798
2 19.343 22.1374 27.227
2 13.3335 26.3012 15.3907
2 14.9839 12.1458 9.77766
2 18.7362 7.58558 8.62023
2 14.4711 6.69322 7.68292
2 14.1579 23.1256 14.0606
2 18.6035 28.6151 20.6337
2 9.24015 21.0716 7.98723
2 9.29176 7.09179 17.0572
2 11.3685 19.9711 10.9286
2 13.9088 25.7902 15.5953
2 12.0985 7.57284 10.0081
2 11.0051 25.2669 12.8528
2 19.0686 8.5972 19.577
2 15.6717 27.6781 18.9942
2 13.8962 9.24043 8.312
2 18.4496 26.5184 27.12
2 10.8872 6.65004 10.688
2 17.408 8.86099 14.565
2 11.6621 26.8297 19.1592
2 7.71148 14.6736 12.0744
2 17.1349 27.0241 21.0933
2 15.0011 21.1705 15.8436
2 24.0873 10.3267 17.9055
2 20.1666 24.0538 28.3844
2 16.8762 18.9007 25.2596
2 22.3798 24.253 19.9657
2 7.20175 27.6029 27.9137
2 19.6706 9.15632 17.4262
2 20.2106 6.58226 19.6286
2 17.5403 22.4584 22.5323
2 12.647 7.03493 24.3366
2 13.7681 27.5577 7.75498
2 9.33367 27.2966 11.4666
2 14.8343 26.904 24.4132
2 9.17049 6.89559 15.4298
2 8.77236 22.2769 17.7563
2 20.3568 27.0095 17.7098
2 13.5158 23.6341 7.52435
2 10.3013 26.4915 9.97144
2 12.7186 21.0536 7.28223
2 13.6735 25.5899 20.807
2 8.78408 28.2167 21.5665
2 11.1155 22.2838 17.2969
2 7.91567 27.1646 9.91502
2 19.8511 20.887 18.3398
2 13.4913 6.1804 18.2636
2 20.8916 11.7284 8.32682
2 15.401 27.0692 27.5645
2 17.5867 18.6475 20.6899
2 8.45083 23.15 7.41421
2 20.9773 26.256 26.8452
2 12.5666 6.62376 7.16159
2 17.77 10.6065 26.0902
2 21.9616 20.3918 23.8362
2 5.97935 23.4198 22.2516
2 14.9673 6.36921 24.711
2 18.8496 13.1285 10.8671
2 17.3101 22.4694 19.5386
2 18.9527 6.32378 26.2729
2 10.9653 20.4972 13.6262
2 13.3292 25.0252 25.0133
2 12.5582 21.3766 14.1064
2 14.4212 26.9385 10.7233
2 16.3717 17.808 10.8035
2 8.99242 20.3098 26.6647
2 15.0337 18.76 8.16703
2 17.3425 26.6715 24.7173
2 8.47515 25.5902 11.4067
2 11.497 21.8206 14.4569
2 9.36196 21.127 23.4771
2 7.71823 27.1289 7.7085
2 10.8419 23.0551 6.2278
2 8.03841 26.3114 16.995
2 13.0144 27.0568 8.33485
2 13.3014 9.79397 22.9575
2 11.2065 8.59356 13.0004
2 17.7032 26.513 14.8089
2 13.5301 20.5771 19.176
2 14.4026 20.8133 23.1748
2 18.9489 9.3655 20.3058
2 10.9412 22.6344 26.9736
2 20.4866 25.92 14.1276
2 15.2984 25.7365 16.8596
2 13.3102 24.9373 14.8222
2 17.3828 24.1779 14.2206
2 21.329 11.4628 18.6177
2 11.3809 20.8034 20.6737
2 8.74599 27.3037 17.6726
2 12.171 21.5309 18.6928
2 16.9926 18.9801 21.2601
2 16.8785 11.9086 12.3113
2 15.0027 23.0736 23.1936
2 11.3974 17.7623 24.0819
2 15.2861 10.343 7.0757
2 14.5987 7.29937 27.8187
2 11.9293 19.5812 18.3036
2 15.8819 23.7422 6.57191
2 9.87271 20.9764 26.4281
2 10.9082 17.9847 15.4917
2 8.13607 22.0873 10.6571
2 14.4726 21.317 19.0714
2 12.2261 21.9716 16.9162
2 18.9571 18.1105 16.6515
2 18.7289 26.7188 16.1592
2 11.8318 19.8713 13.4299
2 18.4169 6.93427 24.196
2 10.6092 22.4145 26.0344
2 20.7439 25.2495 20.0507
2 20.4892 8.42997 21.4316
2 18.6473 27.2683 24.4452
2 9.6711 6.48879 11.7544
2 13.6731 24.16 10.3099
2 11.2858 26.496 7.55202
2 21.3725 28.1559 5.95414
2 20.6209 22.1035 7.8405
2 16.2152 9.76288 13.2252
2 19.6116 20.3913 15.6946
2 20.9921 20.9768 16.9895
2 16.6024 18.5775 24.3208
2 16.0612 8.89921 10.6355
2 8.05683 28.081 11.5343
2 9.87069 21.3155 15.3365
2 18.1457 21.3839 11.0686
2 17.2047 27.3386 27.9591
2 13.1494 25.0321 14.0973
2 16.8252 28.3206 17.1131
2 7.52243 22.0724 19.6153
2 16.7788 7.90815 12.36
2 19.0461 28.5371 19.1206
2 10.2718 8.41939 13.4229
2 11.1783 7.46457 12.6056
2 13.7166 28.4552 24.621
2 22.6351 26.3949 23.5975
2 15.8168 26.9043 6.76185
2 17.4834 22.5959 27.4762
2 11.7781 7.55466 23.2881
2 20.3142 9.77446 17.8375
2 12.777 27.8691 23.9242
2 16.1419 6.72512 25.5409
2 20.2688 24.222 15.8721
2 20.4061 19.1229 22.6896
2 10.9976 6.65086 24.9548
2 8.45213 26.259 17.6372
2 20.5372 27.3605 6.37182
2 20.5693 22.2306 22.3041
2 14.714 19.4224 15.3805
2 6.53284 11.9312 12.2098
2 16.843 21.887 25.0581
2 18.8606 24.5123 17.0248
2 15.921 17.5805 23.9699
2 18.2446 20.2262 24.807
2 19.2979 27.4356 8.2565
2 16.5589 23.2408 17.1686
2 13.7835 18.7284 19.1598
2 16.2006 27.4183 14.6309
2 6.81292 26.0732 24.7951
2 11.0998 19.7259 27.8303
2 9.29378 7.28809 26.7414
2 18.9946 26.0251 25.1505
2 22.2695 6.37655 27.0909
2 10.0712 23.6007 18.1
2 22.7858 25.3044 25.1294
2 10.121 23.5088 27.5093
2 13.1518 17.5478 6.8708
2 15.1078 19.2759 27.4137
2 9.01749 27.1564 16.7562
2 11.5055 26.7141 6.43755
2 7.52671 25.6634 12.0567
2 7.67364 23.7212 8.32663
2 8.401 6.30292 27.0174
2 15.045 24.4737 8.59069
2 11.7501 25.644 18.9606
2 15.584 23.7472 7.34654
2 16.6285 13.3568 8.45544
2 10.3745 9.4225 6.84623
2 19.6656 21.9138 20.8181
2 15.6212 6.20045 16.5281
2 12.0632 26.3594 10.2986
2 11.5979 8.27056 24.994
2 19.2039 28.0996 22.0599
2 12.624 20.0083 22.4196
2 10.7007 8.8919 7.51849
2 15.7208 24.2138 16.9746
2 11.6125 27.8799 7.24615
2 16.8261 20.5895 17.3666
2 11.0589 6.83609 28.6482
2 17.7732 24.4097 14.7124
2 12.727 23.401 21.0769
2 10.0445 26.1176 15.7064
2 19.668 8.85986 26.8545
2 16.3524 18.7561 23.3766
2 15.2805 26.3567 9.88186
2 6.08397 23.4903 20.8701
2 13.1793 21.5392 6.97948
2 23.5172 17.283 14.0261
2 17.6028 6.68779 8.68602